# Force       
# CofR        : (7.470000e-01 5.000000e-03 2.570000e-01)
#
# Time        	total_x total_y total_z	pressure_x pressure_y pressure_z	viscous_x viscous_y viscous_z
2000           -1.331454e+02 3.432395e+01 -3.336182e+02 -1.276678e+02 3.401908e+01 -3.343783e+02 -5.477644e+00 3.048736e-01 7.600925e-01
