# Moment      
# CofR        : (7.470000e-01 5.000000e-03 2.570000e-01)
#
# Time        	total_x total_y total_z	pressure_x pressure_y pressure_z	viscous_x viscous_y viscous_z
2000           -1.191525e+02 9.464791e+00 3.533722e+01 -1.194483e+02 9.673088e+00 3.320975e+01 2.957277e-01 -2.082964e-01 2.127472e+00
